4
Lattice="4.83489705 -0.00024941 -0.0 1.79496773 4.48935635 -0.0 -3.3149346 -2.24455496 2.71097974" Properties=species:S:1:pos:R:3:forces:R:3 env=alexand id=---8Rvb48zlidkq-u18UufTC8YE3 energy=-28.49686793 pbc="T T T"
Ag       0.00000000       0.00000000       0.00000000      -4.36463208       0.93691690       2.23402663
Ru       0.89748276       2.24467743       1.35548987      -1.01856759       0.65810624       2.49611142
Ru       3.31493239       2.24455347       0.00000000      -1.04914243       0.65885182       2.48117233
Ru       2.41744742      -0.00012545       1.35548987      -1.01856759       0.65810624       2.49611142
4
Lattice="2.74777587 -0.0 -0.0 -1.37389161 4.55843724 0.00638892 -0.0 -0.81466443 4.70602682" Properties=species:S:1:pos:R:3:forces:R:3 env=alexand id=--BDkT3JGNWDnR7qq3R5kFs8qtSw energy=-46.43459769 pbc="T T T"
Re      -0.00000001       0.01219398       0.01367442      -1.00221259       0.59046063       2.89855177
Re      -0.00000366       4.13891104       2.34572791      -1.00221259       0.59046063       2.89855177
Re      -0.00000184       1.66822030       3.53271457      -0.87623367       0.58090778       2.88649495
Ru       1.37388610       2.07555251       1.17970116      -1.41335790       0.69057840       2.59430536
12
Lattice="5.99541216 0.0 0.0 0.0 5.99541216 0.0 0.0 0.0 5.99541216" Properties=species:S:1:pos:R:3:forces:R:3 env=alexand id=--G-DHX3iVag-XGeG1qr4rRbFF7G energy=-112.04414346 pbc="T T T"
Ru       0.00000000       0.00000000       0.00000000      -1.89333560       0.72001700       2.46874198
Ru       0.00000000       2.99770608       2.99770608      -1.89333560       0.72001700       2.46874198
Ru       2.99770608       0.00000000       2.99770608      -1.89333560       0.72001700       2.46874198
Ru       2.99770608       2.99770608       0.00000000      -1.89333560       0.72001700       2.46874198
Mo       0.74085200       3.73855808       5.25456016      -0.44520404       0.50391379       2.31666403
Mo       0.74085200       5.25456016       2.25685408      -0.44520404       0.50391379       2.31666403
Mo       2.25685408       0.74085200       5.25456016      -0.44520404       0.50391379       2.31666403
Mo       2.25685408       2.25685408       2.25685408      -0.44520404       0.50391379       2.31666403
Mo       3.73855808       3.73855808       3.73855808      -0.44520404       0.50391379       2.31666403
Mo       3.73855808       5.25456016       0.74085200      -0.44520404       0.50391379       2.31666403
Mo       5.25456016       0.74085200       3.73855808      -0.44520404       0.50391379       2.31666403
Mo       5.25456016       2.25685408       0.74085200      -0.44520404       0.50391379       2.31666403
6
Lattice="4.79477122 -0.00317885 -0.00014705 4.10648653 2.47519889 -0.00014705 -7.44706083 -2.06816656 5.79684459" Properties=species:S:1:pos:R:3:forces:R:3 env=alexand id=--eaRP0P0SmbuiwpJyNzQiXUqhx7 energy=-46.22504249 pbc="T T T"
Co       1.44036199       0.40001130       5.77931134      -1.29845934       0.75978699       1.91442052
Co      -4.37096861      -1.21388710       4.15968846      -1.33239787       0.75884458       1.91639896
Co      -1.99437076      -0.55386830       3.83550832      -1.30317071       0.75903672       1.88271893
Co       1.04186616       0.28934271       2.29812694      -1.31224494       0.75961556       1.92318296
Co       3.47361017       0.96467647       1.95720527      -1.30437459       0.75998437       1.89523896
Os       6.49800096       1.80459762       0.32585388      -1.71646429       0.66661756       2.86158187
8
Lattice="0.0 3.70451752 3.70451752 3.70451752 0.0 3.70451752 3.70451752 3.70451752 0.0" Properties=species:S:1:pos:R:3:forces:R:3 env=alexand id=--r_siczLdWmcd5-eWHm819TqH3j energy=-37.27777545 pbc="T T T"
Cu       3.70451752       1.85225876       1.85225876      -2.40181355       0.93335740       1.83290481
Cu       1.85225876       3.70451752       1.85225876      -2.40181355       0.93335740       1.83290481
Cu       1.85225876       1.85225876       3.70451752      -2.40176574       0.93335786       1.83288051
Cu       1.85225876       1.85225876       0.00000000      -2.40176574       0.93335786       1.83288051
Cu       1.85225876       0.00000000       1.85225876      -2.40181355       0.93335740       1.83290481
Cu       0.00000000       1.85225876       1.85225876      -2.40181355       0.93335740       1.83290481
Cu       3.70451752       3.70451752       3.70451752      -2.17233675       0.93835560       1.78439511
Mo       0.00000000       0.00000000       0.00000000       0.30311872       0.43658038       3.01931440
9
Lattice="7.36382145 0.0 0.0 -3.68191073 6.37725645 0.0 0.0 0.0 2.75016547" Properties=species:S:1:pos:R:3:forces:R:3 env=alexand id=-0Ee2RUdsshPOm-fWSMpx3W1LZVp energy=-58.10841529 pbc="T T T"
Co       0.00000000       0.00000000       1.37508273      -1.36399043       0.73111543       2.25142495
Co      -0.00000004       4.25150432       0.00000000      -1.36087303       0.72182463       2.19440787
Co       3.68191076       2.12575213       0.00000000      -1.36087303       0.72182463       2.19440787
Pt      -1.08809512       1.88463603       0.00000000      -2.32115064       0.84303468       2.71635777
Pt      -2.32251895       4.02272082       1.37508273      -2.25100187       0.84234238       2.70547218
Pt       2.17619024       0.00000000       0.00000000      -2.32102961       0.84301796       2.71651068
Pt       2.59381560       4.49262042       0.00000000      -2.32115064       0.84303468       2.71635777
Pt       4.64503789       0.00000000       1.37508273      -2.25097289       0.84233668       2.70544233
Pt       1.35939178       2.35453563       1.37508273      -2.25100187       0.84234238       2.70547218
9
Lattice="4.08101163 -7.06851948 0.0 4.08101163 7.06851948 0.0 0.0 0.0 2.64981837" Properties=species:S:1:pos:R:3:forces:R:3 env=alexand id=-0cSLqBWh-IBLi3KYWjNdqVTH79w energy=-46.31259304 pbc="T T T"
Re       0.00000000       0.00000000       1.32490919      -0.11257048       0.52610865       2.95054035
Re       4.08101163       2.35617321       0.00000000      -0.12091830       0.52514401       2.91408192
Re       4.08101163      -2.35617321       0.00000000      -0.12091830       0.52514401       2.91408192
Ag       1.25889741       2.18047427       0.00000000      -4.11295550       0.93985013       2.33435318
Ag       2.61069807       4.52186169       1.32490919      -4.00660502       0.93988639       2.31613081
Ag       1.25889741      -2.18047427       0.00000000      -4.11295550       0.93985013       2.33435318
Ag       5.64422844       0.00000000       0.00000000      -4.11292286       0.93985134       2.33446866
Ag       2.61069807      -4.52186169       1.32490919      -4.00660502       0.93988639       2.31613081
Ag       2.94062713       0.00000000       1.32490919      -4.00645285       0.93987323       2.31647430
8
Lattice="3.36197841 -3.59079528 0.0 3.36197841 3.59079528 0.0 0.0 0.0 4.12334495" Properties=species:S:1:pos:R:3:forces:R:3 env=alexand id=-0m0E1LdYPWMfh2RqfWu--SOlYXs energy=-70.75373221 pbc="T T T"
Mn       3.36197841      -3.09281611       1.03083624      -0.58436859       0.58382190       1.76904396
Mn       3.36197841       3.09281611       3.09250871      -0.58436859       0.58382190       1.76904396
Mn       4.51411318       1.82213294       1.03083624      -0.61138904       0.58714130       1.84797788
Mn       2.20984364      -1.82213294       3.09250871      -0.61138904       0.58714130       1.84797788
Mn       2.20984364       1.82213294       1.03083624      -0.61138904       0.58714130       1.84797788
Mn       4.51411318      -1.82213294       3.09250871      -0.61138904       0.58714130       1.84797788
Ru       3.36197841       0.64806630       3.09250871      -1.84679020       0.72959541       2.33176534
Ru       3.36197841      -0.64806630       1.03083624      -1.84679020       0.72959541       2.33176534
3
Lattice="4.17155792 0.0 -0.0 -2.08577896 3.61267513 0.0 -0.0 -0.0 2.68372473" Properties=species:S:1:pos:R:3:forces:R:3 env=alexand id=-0rlc0I1j_6GS8c9Kg9jVU-8hd8f energy=-14.33337837 pbc="T T T"
Au       0.00000000       0.00000000       0.00000000      -3.47313921       0.91084673       2.89595924
Ni      -0.00000002       2.40845010       1.31896381      -0.95621154       0.82873987       1.87377307
Ni       2.08577898       1.20422503       1.36476092      -0.95621154       0.82873987       1.87377307
6
Lattice="1.3666006 5.48662848 0.00077817 -1.3666006 5.48662848 0.00077817 0.0 1.78372535 6.82393385" Properties=species:S:1:pos:R:3:forces:R:3 env=alexand id=-1GEkZYMz4WW30Jo992tRTgxeeur energy=-23.0615564 pbc="T T T"
Ag       0.00000000      12.73852247       6.76685598      -3.76328782       0.94130214       2.45276337
Ag      -0.00000000       7.20548075       1.91168938      -3.73682385       0.94060304       2.43244117
Ag       0.00000000       4.28523570       2.21647483      -3.75966242       0.94342618       2.48974866
Ag       0.00000000      11.42084186       4.23654990      -3.75379954       0.94065565       2.44036034
Ag      -0.00000000       8.55553280       4.53861593      -3.79046987       0.94136277       2.46230743
Os      -0.00000000       4.69615182       6.49419308      -0.46057939       0.63162490       2.86089183
4
Lattice="3.83809052 0.0 0.0 0.0 3.83809052 0.0 0.0 0.0 3.83809052" Properties=species:S:1:pos:R:3:forces:R:3 env=alexand id=-1M6gsoB0f3kF2UpXV3TkvPdYeDo energy=-43.07384592 pbc="T T T"
Os       0.00000000       1.91904526       1.91904526      -1.22851200       0.65451388       3.02786655
Os       1.91904526       0.00000000       1.91904526      -1.22851200       0.65451388       3.02786655
Os       1.91904526       1.91904526       0.00000000      -1.22863944       0.65452952       3.02785969
V        0.00000000       0.00000000       0.00000000       0.69280068       0.33625106       2.42555504
16
Lattice="7.4072781 0.24643041 0.2547879 -5.67282778 4.32604191 0.06777015 -0.59272675 -1.87486946 8.15088367" Properties=species:S:1:pos:R:3:forces:R:3 env=alexand id=-1e4OTdQNy9RGifgmbfsapwI415g energy=-72.52931443 pbc="T T T"
Rh      -0.99436149       0.18860899       4.04229393      -0.74063360       0.75121266       2.66177932
Rh       0.82740113       0.98662532       0.33137768      -0.92101726       0.74892091       2.61606749
Rh      -2.20009891       3.69274137       1.14190338      -0.83112009       0.74884849       2.61827278
Rh       3.34295845      -0.99283219       7.33821340      -0.83101649       0.74884195       2.61851172
Rh       0.31533810       1.71334251       8.14874813      -0.92097041       0.74891548       2.61620957
Rh       2.13689619       2.51127543       4.43791278      -0.74087082       0.75122887       2.66144524
Au      -4.43777644       1.58127096       6.88482766      -3.00497030       0.91699370       2.72733905
Au       1.49248328       0.23206866       2.89533495      -3.04849652       0.91773716       2.71427593
Au      -2.57771407       2.37026252       3.59114685      -3.08044524       0.92015996       2.79318631
Au      -1.78269509       0.34985692       6.91867149      -2.88137030       0.91983397       2.65911397
Au       1.06719658      -0.00847625       5.91293839      -2.97301207       0.91916108       2.65557298
Au       0.07554868       2.70838731       2.56712205      -2.97362111       0.91920131       2.65427776
Au       2.92545212       2.35010631       1.56142458      -2.88100051       0.91981006       2.65980967
Au       3.72034281       0.32977721       4.88898684      -3.08044760       0.92015275       2.79336133
Au      -0.34985033       2.46781120       5.58475754      -3.04912912       0.91777523       2.71305503
Au       5.58049922       1.11867733       1.59533472      -3.00542249       0.91702393       2.72636032
12
Lattice="5.64520788 0.0 0.0 0.0 5.64520788 0.0 0.0 0.0 5.64520788" Properties=species:S:1:pos:R:3:forces:R:3 env=alexand id=-21EdfvLXptnfaAKFj4X5S72ra3H energy=-97.30893962 pbc="T T T"
Ru       0.67477046       3.49737440       4.97043742      -1.30611800       0.67963027       2.47354053
Ru       0.67477046       4.97043742       2.14783348      -1.30611800       0.67963027       2.47354053
Ru       2.14783348       0.67477046       4.97043742      -1.30611800       0.67963027       2.47354053
Ru       2.14783348       2.14783348       2.14783348      -1.30611800       0.67963027       2.47354053
Ru       3.49737440       3.49737440       3.49737440      -1.30611800       0.67963027       2.47354053
Ru       3.49737440       4.97043742       0.67477046      -1.30611800       0.67963027       2.47354053
Ru       4.97043742       0.67477046       3.49737440      -1.30611800       0.67963027       2.47354053
Ru       4.97043742       2.14783348       0.67477046      -1.30611800       0.67963027       2.47354053
Fe       0.00000000       0.00000000       0.00000000      -1.09627670       0.65250439       2.11663961
Fe       0.00000000       2.82260394       2.82260394      -1.09627670       0.65250439       2.11663961
Fe       2.82260394       0.00000000       2.82260394      -1.09627670       0.65250439       2.11663961
Fe       2.82260394       2.82260394       0.00000000      -1.09627670       0.65250439       2.11663961
16
Lattice="7.84505967 0.0 0.0 -0.0 7.84505967 0.0 0.0 0.0 4.38250212" Properties=species:S:1:pos:R:3:forces:R:3 env=alexand id=-2w-FlcnzhNEN5R_y7NLwU1iTBew energy=-130.73416182 pbc="T T T"
Os       5.98183431       7.31205376       2.19125106      -1.54906361       0.63344188       2.97375734
Os       1.86322536       0.53300591       2.19125106      -1.54906361       0.63344188       2.97375734
Os       0.53300591       5.98183431       2.19125106      -1.54906361       0.63344188       2.97375734
Os       7.31205376       1.86322536       2.19125106      -1.54906361       0.63344188       2.97375734
Os       6.77411551       3.41315011       0.00000000      -1.82273417       0.63382681       3.07485289
Os       1.07094416       4.43190956       0.00000000      -1.82273417       0.63382681       3.07485289
Os       4.43190956       6.77411551       0.00000000      -1.82273417       0.63382681       3.07485289
Os       3.41315011       1.07094416       0.00000000      -1.82273417       0.63382681       3.07485289
Pt       5.80702708       4.58614422       2.19125106      -2.35007147       0.84851713       2.44988980
Pt       2.03803259       3.25891545       2.19125106      -2.35007147       0.84851713       2.44988980
Pt       3.25891545       5.80702708       2.19125106      -2.35007147       0.84851713       2.44988980
Pt       4.58614422       2.03803259       2.19125106      -2.35007147       0.84851713       2.44988980
Pt       6.90508580       6.06231771       0.00000000      -3.30428601       0.83843138       2.99042492
Pt       0.93997387       1.78274196       0.00000000      -3.30428601       0.83843138       2.99042492
Pt       1.78274196       6.90508580       0.00000000      -3.30428601       0.83843138       2.99042492
Pt       6.06231771       0.93997387       0.00000000      -3.30428601       0.83843138       2.99042492
7
Lattice="4.76628196 0.0 0.0 2.38314098 4.12772126 0.0 0.0 0.0 4.90278472" Properties=species:S:1:pos:R:3:forces:R:3 env=alexand id=-36Hq4ig7XF7KbLP6-I1GWWE-uNV energy=-76.96381257 pbc="T T T"
Fe       3.57471147       2.06386063       0.00000000      -0.96269878       0.64835623       2.01669314
Fe       1.19157049       2.06386063       0.00000000      -0.96269878       0.64835623       2.01669314
Fe       2.38314098       0.00000000       0.00000000      -0.96261245       0.64834809       2.01669805
W        0.00000000       0.00000000       1.23280840      -0.26061001       0.50695687       3.12454169
W        0.00000000       0.00000000       3.66997632      -0.26061001       0.50695687       3.12454169
W        2.38314096       1.37590707       2.45139236      -0.10400996       0.47995483       2.76570315
W        4.76628198       2.75181419       2.45139236      -0.10400996       0.47995483       2.76570315
9
Lattice="6.27683929 -0.0059681 -0.0 -5.04378956 3.73616568 -0.0 -0.61652486 -1.86509879 5.96154768" Properties=species:S:1:pos:R:3:forces:R:3 env=alexand id=-3KcIr6WEz__uIaLEaIsPHQJgrhU energy=-60.40244733 pbc="T T T"
Ti       0.00000000       0.00000000       0.00000000       1.03187692       0.21821479       2.44335040
Pt      -1.21384003       2.47014206       0.00000000      -2.37985322       0.84009979       2.60626112
Pt       2.44688976       1.26005552       0.00000000      -2.37985322       0.84009979       2.60626112
Pt      -0.00000000      -0.00000002       4.03377363      -2.37997936       0.84009122       2.60649249
Pt       3.79582135      -1.25474225       3.99782914      -2.34042806       0.83852722       2.54724054
Pt      -3.79582134       1.25474225       3.99782914      -2.34042806       0.83852722       2.54724054
Pt      -1.86449308       0.61632464       1.96371854      -2.34042806       0.83852722       2.54724054
Pt       1.86449308      -0.61632464       1.96371854      -2.34042806       0.83852722       2.54724054
Pt       0.61652487       1.86509881       1.92777405      -2.37997936       0.84009122       2.60649249
16
Lattice="4.97932231 0.0 0.0 0.0 9.19935007 0.0 0.0 0.0 5.46898628" Properties=species:S:1:pos:R:3:forces:R:3 env=alexand id=-3RCGqQVbwuqOtnL7UCzDFuQZGXc energy=-171.79058618 pbc="T T T"
Mo       4.73080573       2.29983752       4.83209450      -0.37923546       0.52572032       2.51168128
Mo       1.14417895       0.13980593       2.06552444      -0.39435425       0.54377719       2.54739057
Mo       1.14417895       4.45986911       2.06552444      -0.39435425       0.54377719       2.54739057
Mo       1.34548220       4.73948096       4.80001758      -0.39435425       0.54377719       2.54739057
Mo       1.34548220       9.05954414       4.80001758      -0.39435425       0.54377719       2.54739057
Mo       2.73817774       6.89951255       2.09760136      -0.37923546       0.52572032       2.51168128
Mo       2.24114457       2.29983752       3.37138492      -0.37923546       0.52572032       2.51168128
Mo       3.63384011       0.13980593       0.66896870      -0.39435425       0.54377719       2.54739057
Mo       3.63384011       4.45986911       0.66896870      -0.39435425       0.54377719       2.54739057
Mo       3.83514336       4.73948096       3.40346184      -0.39435425       0.54377719       2.54739057
Mo       3.83514336       9.05954414       3.40346184      -0.39435425       0.54377719       2.54739057
Mo       0.24851658       6.89951255       0.63689178      -0.37923546       0.52572032       2.51168128
Os       0.37530357       6.89951255       3.34485536      -1.45876327       0.70386723       2.58552348
Os       2.11435758       2.29983752       0.61036222      -1.45876327       0.70386723       2.58552348
Os       2.86496473       6.89951255       4.85862406      -1.45876327       0.70386723       2.58552348
Os       4.60401874       2.29983752       2.12413092      -1.45876327       0.70386723       2.58552348
7
Lattice="2.47176842 -4.28122848 0.0 2.47176842 4.28122848 0.0 0.0 0.0 4.8763544" Properties=species:S:1:pos:R:3:forces:R:3 env=alexand id=-3SblixAk5zb_QrK_0Z8KQcs4-VZ energy=-62.71558675 pbc="T T T"
Os       0.00000000       0.00000000       1.25425775      -1.53234519       0.63275864       3.04700670
Os       0.00000000       0.00000000       3.62209665      -1.53234519       0.63275864       3.04700670
Os       2.47176842      -1.42707619       2.43817720      -1.13346931       0.61704995       2.68731388
Os       2.47176842       1.42707619       2.43817720      -1.13346931       0.61704995       2.68731388
Rh       1.23588421       2.14061424       0.00000000      -2.27849591       0.76072249       2.76319074
Rh       2.47176842       0.00000000       0.00000000      -2.27853004       0.76071364       2.76325643
Rh       1.23588421      -2.14061424       0.00000000      -2.27849591       0.76072249       2.76319074
8
Lattice="4.92672249 0.0 0.0 0.0 4.92672249 0.0 0.0 0.0 4.92672249" Properties=species:S:1:pos:R:3:forces:R:3 env=alexand id=-3soSsscB9PpQRY07B9yCCMw0Jzu energy=-69.66773952 pbc="T T T"
Rh       0.00000000       1.23168062       2.46336125      -1.49023634       0.75789849       2.59906551
Rh       0.00000000       3.69504187       2.46336125      -1.49023634       0.75789849       2.59906551
Rh       1.23168062       2.46336125       0.00000000      -1.49023634       0.75789849       2.59906551
Rh       2.46336125       0.00000000       1.23168062      -1.49033762       0.75791127       2.59888940
Rh       2.46336125       0.00000000       3.69504187      -1.49033762       0.75791127       2.59888940
Rh       3.69504187       2.46336125       0.00000000      -1.49023634       0.75789849       2.59906551
W        0.00000000       0.00000000       0.00000000       0.25011941       0.40447032       2.86843143
W        2.46336125       2.46336125       2.46336125       0.25011941       0.40447032       2.86843143
3
Lattice="2.04498744 -3.54202215 0.0 2.04498744 3.54202215 0.0 0.0 0.0 2.62069223" Properties=species:S:1:pos:R:3:forces:R:3 env=alexand id=-3x2QSiazc26pNLEz2zfRD4hBXsj energy=-28.23566563 pbc="T T T"
Cr       2.04498744      -1.18067407       0.00000000      -0.05595303       0.48382583       2.04806092
Cr       2.04498744       1.18067407       0.00000000      -0.05595303       0.48382583       2.04806092
Ir       0.00000000       0.00000000       1.31034611      -2.37640314       0.79230479       2.47930279
3
Lattice="2.7910633 0.0 -0.0 0.0 3.99185525 -0.0 -1.39553165 -1.99592762 4.17458563" Properties=species:S:1:pos:R:3:forces:R:3 env=alexand id=-44qvYkRO41JEan4h2mVwOcSxD-6 energy=-26.0879375 pbc="T T T"
Pt       0.00000000       0.00000000       2.81344253      -2.82510950       0.83871544       2.80039288
Pt       1.39553165       1.99592763       1.36114310      -2.82510950       0.83871544       2.80039288
W        0.00000000       0.00000000       0.00000000       0.10603988       0.40426004       3.19333246
8
Lattice="7.2711839 -2.20195741 -0.00225443 7.2711839 2.20195741 -0.00225443 6.60552198 0.0 3.75310754" Properties=species:S:1:pos:R:3:forces:R:3 env=alexand id=-47FRHAtyzWKTaT_7UmPfYvoYZmN energy=-77.26889846 pbc="T T T"
Re      11.76224968       0.00000000       2.08493396      -1.02328408       0.53000047       3.23427050
Re       9.38564010       0.00000000       1.66366472      -1.02328408       0.53000047       3.23427050
Re       4.17210307      -0.00000000       0.73953194      -0.78351688       0.53261341       3.11475895
Re      16.97578671      -0.00000000       3.00906674      -0.78351688       0.53261341       3.11475895
Rh       6.79271129       0.00000000       1.20405151      -1.67463032       0.76696470       2.33084787
Rh       1.42529967      -0.00000000       0.25264348      -1.60538360       0.76750015       2.41853751
Rh      19.72259011      -0.00000000       3.49595520      -1.60538360       0.76750015       2.41853751
Rh      14.35517849      -0.00000000       2.54454717      -1.67463032       0.76696470       2.33084787
2
Lattice="3.75502768 0.0 0.0 1.87751384 3.25194936 0.0 1.87751384 1.08398312 3.06596726" Properties=species:S:1:pos:R:3:forces:R:3 env=alexand id=-494Oyyl16o9dpGryYQsr8eqXbmA energy=-9.82901702 pbc="T T T"
Au       0.00000000       0.00000000       0.00000000      -3.37253803       0.89715558       2.76703177
Ir       3.75502768       2.16796624       1.53298363      -0.74455752       0.72552337       2.81836716
4
Lattice="2.917497 0.0 0.05940516 0.0 4.04168393 0.0 -1.09799285 0.0 4.65734504" Properties=species:S:1:pos:R:3:forces:R:3 env=alexand id=-4W_c5INVnM7mvYt9Zfg81v4kA7L energy=-28.93803853 pbc="T T T"
Ni       0.36364396       1.01042098       3.88701024      -1.76343170       0.85152784       1.64959901
Ni       1.45586019       3.03126295       0.82973996      -1.76343170       0.85152784       1.64959901
Ti       0.01850149       1.01042098       1.33501974       1.19827877       0.22647445       2.20854509
Ti       1.80100266       3.03126295       3.38173046       1.19827877       0.22647445       2.20854509
4
Lattice="2.90491632 0.0 0.0 -1.45245816 2.51573133 0.0 0.0 0.0 9.53497527" Properties=species:S:1:pos:R:3:forces:R:3 env=alexand id=-52oRReZFTbam3RfqU2M1S-_U3OQ energy=-21.78542846 pbc="T T T"
Au       0.00000000       0.00000000       9.44535957      -3.93379918       0.92577885       2.41914898
Au       0.00000000       0.00000000       4.85710334      -3.93379918       0.92577885       2.41914898
Au      -0.00000001       1.67715423       2.38374382      -3.29381607       0.93513317       2.25777464
W       -0.00000001       1.67715423       7.15123145       0.39936945       0.40237089       3.03443162
3
Lattice="4.20082037 0.0 0.0 0.0 4.20082037 0.0 0.0 0.0 2.5618673" Properties=species:S:1:pos:R:3:forces:R:3 env=alexand id=-5NBnP8uapizK3PQumk5k0Q2u9NL energy=-21.80371815 pbc="T T T"
Ni       0.00000000       0.00000000       0.00000000      -1.63072568       0.83025271       2.09887468
Ru       0.00000000       2.10041018       1.28093365      -0.95541049       0.64746247       2.62147612
Ru       2.10041018       0.00000000       1.28093365      -0.95541049       0.64746247       2.62147612
6
Lattice="2.45983817 0.0 -0.05618909 0.0 4.03778503 0.0 -0.10060569 0.0 6.79701603" Properties=species:S:1:pos:R:3:forces:R:3 env=alexand id=-5z9cLAqYcgtEmAbEZG8TQ5Uv5Y0 energy=-45.20660629 pbc="T T T"
Co       0.00600933       0.00000000       0.05797469      -1.03819030       0.73128386       2.61166092
Co       1.03263787       2.01889252       1.09708569      -1.06030118       0.73400828       2.59625834
Co       1.37689745       0.00000000       2.24523323      -1.06030118       0.73400828       2.59625834
Co       2.40352599       2.01889252       3.28434423      -1.03819030       0.73128386       2.61166092
Fe       0.69871315       0.00000000       4.52321339      -0.52388380       0.63318140       2.76674006
Fe       1.61021649       2.01889252       5.61612157      -0.52388380       0.63318140       2.76674006
6
Lattice="-1.36206866 1.36206866 13.22386358 1.36206866 -1.36206866 13.22386358 1.36206866 1.36206866 -13.22386358" Properties=species:S:1:pos:R:3:forces:R:3 env=alexand id=-6-jhhP184pWOV-fY7y7b38owS_p energy=-62.6357591 pbc="T T T"
Pt       0.00000000       0.00000000       0.00000000      -3.35310809       0.87140223       2.47220480
Pt       0.00000000       1.36206866       6.61193179      -3.35310809       0.87140223       2.47220480
W        1.36206866      -0.00000000       8.70511335      -0.62131966       0.53045943       2.68156663
W        1.36206866       0.00000000       4.51875023      -0.62131966       0.53045943       2.68156663
W       -0.00000000       0.00000000      15.31704514      -0.62131966       0.53045943       2.68156663
W        0.00000000      -0.00000000      11.13068202      -0.62131966       0.53045943       2.68156663
9
Lattice="-4.33721633 4.33721633 2.08774212 4.33721633 -4.33721633 2.08774212 4.33721633 4.33721633 -2.08774212" Properties=species:S:1:pos:R:3:forces:R:3 env=alexand id=-62d5zk4T1OyBNSkH_1GOnuC74tA energy=-29.96882172 pbc="T T T"
Ag       0.00000000       2.86242390      -0.00000000      -3.37474189       0.93912349       2.51204745
Ag      -0.00000000       5.81200876      -0.00000000      -3.37474189       0.93912349       2.51204745
Ag       5.81200876      -0.00000000      -0.00000000      -3.37474189       0.93912349       2.51204745
Ag       1.42160133      -1.42160133       2.08774212      -3.34481576       0.93799897       2.52359158
Ag       1.42160133       1.42160133       2.08774212      -3.34481576       0.93799897       2.52359158
Ag       2.86242390       0.00000000      -0.00000000      -3.37474189       0.93912349       2.51204745
Ag       2.91561500       2.91561500      -0.00000000      -3.34481576       0.93799897       2.52359158
Ag      -1.42160133       1.42160133       2.08774212      -3.34481576       0.93799897       2.52359158
Ir       0.00000000       0.00000000       0.00000000      -0.21993015       0.73855477       2.77854390
8
Lattice="3.99736448 0.0 0.0 0.0 5.12274437 0.29734765 0.0 -1.00997189 5.03099218" Properties=species:S:1:pos:R:3:forces:R:3 env=alexand id=-69WRSF-kVc_KcJRHvXP3Vr69H_s energy=-74.89882232 pbc="T T T"
Ru       0.00000000      -0.31319211       2.66769975      -1.69648830       0.73528045       2.19523787
Ru       0.00000000       1.45274310       4.95557320      -1.69651709       0.73528454       2.19537229
Ru       1.99868224       2.96948999       3.78499654      -1.69860939       0.73570632       2.19334079
Ru       1.99868224       1.20340869       1.49693383      -1.69869487       0.73571548       2.19349754
Cr       0.00000000       4.94563036       0.43405620      -0.34879631       0.48894119       1.92062709
Cr       0.00000000       2.41458740       2.38768607      -0.53734607       0.47816139       2.02025698
Cr       1.99868224       3.84286341       1.28524620      -0.34304238       0.48830620       1.92434159
Cr       1.99868224       0.24217643       4.06449955      -0.53942369       0.47837695       2.01960905
2
Lattice="4.23849292 0.0 0.0 2.11924646 3.67064255 0.0 2.11924646 1.22354752 3.46071498" Properties=species:S:1:pos:R:3:forces:R:3 env=alexand id=-6F9X6vtkmEWNIG_SDg-muljFeyA energy=-6.31612866 pbc="T T T"
Ag       0.00000000       0.00000000       0.00000000      -2.82583802       0.92600622       2.74156103
Pt       2.11924646       1.22354752       0.86517875      -0.44432453       0.83610076       2.89891717
6
Lattice="4.67041433 0.0 0.0 2.33520717 4.04469746 0.0 -2.33520717 -1.34823249 3.81337734" Properties=species:S:1:pos:R:3:forces:R:3 env=alexand id=-7J4I-_sVJ8yl5vXSpMSv7-Xl4jh energy=-62.07561588 pbc="T T T"
Mn       1.16760358      -0.67411625       1.90668867      -1.06108995       0.58994464       2.10197933