86
Lattice="31.360001 0.0 0.0 0.0 31.360001 0.0 0.0 0.0 31.360001" Properties=species:S:1:pos:R:3:forces:R:3 ad=-0.4025177199999974 energy=-454.15134424 stress="3.826227346232913e-05 6.5979492290442e-06 -6.5979492290442e-06 6.5979492290442e-06 3.826227346232913e-05 -6.5979492290442e-06 -6.5979492290442e-06 -6.5979492290442e-06 3.826227346232913e-05" free_energy=-454.15210415 pbc="T T T"
Pt       9.99254100      13.70805918      15.68350812       0.00685235       0.00175499      -0.00492230
Pt       9.99255887      15.68911215      13.70394349      -0.00435191      -0.00087813      -0.00082759
Pt       8.24764671      15.68670245      15.67329855       0.00194916       0.00040971      -0.00040971
Pt       9.99254100      15.67649288      17.65194182       0.00685235       0.00492230      -0.00175499
Pt       9.99255887      17.65605751      15.67088885      -0.00435191       0.00082759       0.00087813
Pt      13.70805918       9.99254100      15.68350812       0.00175499       0.00685235      -0.00492230
Pt      11.71665552      13.60502244      13.59597791       0.00242114      -0.00189099      -0.00292998
Pt      13.60502244      11.71665552      13.59597791      -0.00189099       0.00242114      -0.00292998
Pt      13.60619092      13.60619092      11.71045408      -0.00086982      -0.00086982      -0.00735670
Pt      11.85154053      11.85154053      15.63995911      -0.00081555      -0.00081555      -0.00402940
Pt      11.61373388      13.55436820      17.80563280       0.00250266       0.00456366      -0.00456366
Pt      13.55436820      11.61373388      17.80563280       0.00456366       0.00250266      -0.00456366
Pt      13.70567927      13.70567927      15.72111566      -0.00410744      -0.00410744      -0.00719098
Pt      13.55436820      13.55436820      19.74626712       0.00456366       0.00456366      -0.00250266
Pt      13.70704750      15.69177555       9.99713398       0.00092444       0.00049461       0.00045559
Pt      11.86183100      15.69604898      11.86325224       0.00414918       0.00032599      -0.00470528
Pt      11.70600316      17.77068239      13.58931861      -0.00320139      -0.00095473       0.00095473
Pt      13.71664084      15.67759989      13.73963117      -0.00098219      -0.00165896      -0.00348816
Pt      13.59722697      17.77252824      11.70781827       0.00008286      -0.00243561       0.00122308
Pt      11.88707674      15.66556737      15.69443363      -0.00356004      -0.00426453       0.00426453
Pt      11.71665552      17.76402309      17.75497856       0.00242114       0.00292998       0.00189099
Pt      13.70567927      15.63888534      17.65432173      -0.00410744       0.00719098       0.00410744
Pt      13.71664084      17.62036983      15.68240111      -0.00098219       0.00348816       0.00165896
Pt      11.85154053      15.72004189      19.50846047      -0.00081555       0.00402940       0.00081555
Pt      13.70805918      15.67649288      21.36746000       0.00175499       0.00492230      -0.00685235
Pt      13.60502244      17.76402309      19.64334548      -0.00189099       0.00292998      -0.00242114
Pt      13.59722697      19.65218273      13.58747276       0.00008286      -0.00122308       0.00243561
Pt      11.86183100      19.49674876      15.66395202       0.00414918       0.00470528      -0.00032599
Pt      13.60619092      19.64954692      17.75381008      -0.00086982       0.00735670       0.00086982
Pt      13.70704750      21.36286702      15.66822545       0.00092444      -0.00045559      -0.00049461
Pt      15.68911215       9.99255887      13.70394349      -0.00087813      -0.00435191      -0.00082759
Pt      15.68670245       8.24764671      15.67329855       0.00040971       0.00194916      -0.00040971
Pt      15.67649288       9.99254100      17.65194182       0.00492230       0.00685235      -0.00175499
Pt      17.65605751       9.99255887      15.67088885       0.00082759      -0.00435191       0.00087813
Pt      15.69177555      13.70704750       9.99713398       0.00049461       0.00092444       0.00045559
Pt      15.69604898      11.86183100      11.86325224       0.00032599       0.00414918      -0.00470528
Pt      15.67759989      13.71664084      13.73963117      -0.00165896      -0.00098219      -0.00348816
Pt      17.77068239      11.70600316      13.58931861      -0.00095473      -0.00320139       0.00095473
Pt      17.77252824      13.59722697      11.70781827      -0.00243561       0.00008286       0.00122308
Pt      15.66556737      11.88707674      15.69443363      -0.00426453      -0.00356004       0.00426453
Pt      15.63888534      13.70567927      17.65432173       0.00719098      -0.00410744       0.00410744
Pt      17.76402309      11.71665552      17.75497856       0.00292998       0.00242114       0.00189099
Pt      17.62036983      13.71664084      15.68240111       0.00348816      -0.00098219       0.00165896
Pt      15.72004189      11.85154053      19.50846047       0.00402940      -0.00081555       0.00081555
Pt      15.67649288      13.70805918      21.36746000       0.00492230       0.00175499      -0.00685235
Pt      17.76402309      13.60502244      19.64334548       0.00292998      -0.00189099      -0.00242114
Pt      15.67841494      15.67841494       8.24741308       0.00200343       0.00200343       0.00111116
Pt      15.67989670      17.65328278       9.99512882      -0.00124736      -0.00164947      -0.00020149
Pt      17.65328278      15.67989670       9.99512882      -0.00164947      -0.00124736      -0.00020149
Pt      15.67304673      15.67304673      11.89610905      -0.00638698      -0.00638698      -0.00076345
Pt      15.66609359      17.62599236      13.73400864      -0.00541888       0.00157261      -0.00157261
Pt      17.62599236      15.66609359      13.73400864       0.00157261      -0.00541888      -0.00157261
Pt      17.75099458      17.75099458      11.72584933      -0.00363739      -0.00363739       0.00392553
Pt      15.66317711      15.66317711      15.69682389      -0.00376612      -0.00376612       0.00376612
Pt      15.67759989      17.62036983      17.64336016      -0.00165896       0.00348816       0.00098219
Pt      17.62036983      15.67759989      17.64336016       0.00348816      -0.00165896       0.00098219
Pt      17.62599236      17.62599236      15.69390741       0.00157261       0.00157261       0.00541888
Pt      15.66556737      15.66556737      19.47292426      -0.00426453      -0.00426453       0.00356004
Pt      15.68911215      17.65605751      21.36744213      -0.00087813       0.00082759       0.00435191
Pt      17.65605751      15.68911215      21.36744213       0.00082759      -0.00087813       0.00435191
Pt      17.77068239      17.77068239      19.65399784      -0.00095473      -0.00095473       0.00320139
Pt      15.68670245      15.68670245      23.11235429       0.00040971       0.00040971      -0.00194916
Pt      15.68621417      19.50496759      11.85503341       0.00095028      -0.00643857       0.00643857
Pt      15.67989670      21.36487218      13.70671822      -0.00124736       0.00020149       0.00164947
Pt      17.75099458      19.63415167      13.60900642      -0.00363739      -0.00392553       0.00363739
Pt      15.67304673      19.46389195      15.68695427      -0.00638698       0.00076345       0.00638698
Pt      15.69177555      21.36286702      17.65295350       0.00049461      -0.00045559      -0.00092444
Pt      17.77252824      19.65218273      17.76277403      -0.00243561      -0.00122308      -0.00008286
Pt      17.65328278      21.36487218      15.68010430      -0.00164947       0.00020149       0.00124736
Pt      15.69604898      19.49674876      19.49817000       0.00032599       0.00470528      -0.00414918
Pt      15.67841494      23.11258792      15.68158606       0.00200343      -0.00111116      -0.00200343
Pt      19.65218273      13.59722697      13.58747276      -0.00122308       0.00008286       0.00243561
Pt      19.49674876      11.86183100      15.66395202       0.00470528       0.00414918      -0.00032599
Pt      19.64954692      13.60619092      17.75381008       0.00735670      -0.00086982       0.00086982
Pt      21.36286702      13.70704750      15.66822545      -0.00045559       0.00092444      -0.00049461
Pt      19.50496759      15.68621417      11.85503341      -0.00643857       0.00095028       0.00643857
Pt      19.63415167      17.75099458      13.60900642      -0.00392553      -0.00363739       0.00363739
Pt      21.36487218      15.67989670      13.70671822       0.00020149      -0.00124736       0.00164947
Pt      19.46389195      15.67304673      15.68695427       0.00076345      -0.00638698       0.00638698
Pt      19.65218273      17.77252824      17.76277403      -0.00122308      -0.00243561      -0.00008286
Pt      21.36286702      15.69177555      17.65295350      -0.00045559       0.00049461      -0.00092444
Pt      21.36487218      17.65328278      15.68010430       0.00020149      -0.00164947       0.00124736
Pt      19.49674876      15.69604898      19.49817000       0.00470528       0.00032599      -0.00414918
Pt      19.50496759      19.50496759      15.67378683      -0.00643857      -0.00643857      -0.00095028
Pt      23.11258792      15.67841494      15.68158606      -0.00111116       0.00200343      -0.00200343
H       12.36125219      12.36125219      18.99874881      -0.00052249      -0.00052249       0.00052249
86
Lattice="31.360001 0.0 0.0 0.0 31.360001 0.0 0.0 0.0 31.360001" Properties=species:S:1:pos:R:3:forces:R:3 ad=-0.5504598100000693 energy=-536.06798772 stress="3.156848586065699e-05 3.5020982875148446e-06 -3.5020982875148446e-06 3.5020982875148446e-06 3.156848586065699e-05 -3.5020982875148446e-06 -3.5020982875148446e-06 -3.5020982875148446e-06 3.156848586065699e-05" free_energy=-536.06994566 pbc="T T T"
Rh      10.07155628      13.80789782      15.67372442       0.00134437      -0.00058120      -0.00137097
Rh      10.08495861      15.68051010      13.81008424       0.00071700       0.00009262      -0.00318789
Rh       8.35478972      15.68707406      15.67292694      -0.00289920       0.00022258      -0.00022258
Rh      10.07155628      15.68627658      17.55210318       0.00134437       0.00137097       0.00058120
Rh      10.08495861      17.54991676      15.67949090       0.00071700       0.00318789      -0.00009262
Rh      13.80789782      10.07155628      15.67372442      -0.00058120       0.00134437      -0.00137097
Rh      11.92379397      13.76196325      13.76253056       0.00306763       0.00004504       0.00070973
Rh      13.76196325      11.92379397      13.76253056       0.00004504       0.00306763       0.00070973
Rh      13.75393980      13.75393980      11.92930267       0.00236401       0.00236401       0.00488535
Rh      11.96598446      11.96598446      15.66315359      -0.00109142      -0.00109142      -0.00215484
Rh      11.87869139      13.75546327      17.60453773      -0.00085109       0.00589980      -0.00589980
Rh      13.75546327      11.87869139      17.60453773       0.00589980      -0.00085109      -0.00589980
Rh      13.79777293      13.79777293      15.69064691       0.00114748       0.00114748      -0.00058980
Rh      13.75546327      13.75546327      19.48130961       0.00589980       0.00589980       0.00085109
Rh      13.80690057      15.67539215      10.08880272      -0.00062208      -0.00123854      -0.00187682
Rh      11.97102903      15.68026298      11.96901165      -0.00175388       0.00071401       0.00098442
Rh      11.92007060      17.59786777      13.76213323      -0.00327456      -0.00217668       0.00217668
Rh      13.80085060      15.67473484      13.81203608       0.00282930       0.00077163      -0.00114221
Rh      13.75728215      17.59994600      11.93333933      -0.00267555       0.00040595      -0.00202143
Rh      11.85300536      15.67446264      15.68553836      -0.00056587       0.00152055      -0.00152055
Rh      11.92379397      17.59747044      17.59803775       0.00306763      -0.00070973      -0.00004504
Rh      13.79777293      15.66935409      17.56222807       0.00114748       0.00058980      -0.00114748
Rh      13.80085060      17.54796492      15.68526616       0.00282930       0.00114221      -0.00077163
Rh      11.96598446      15.69684741      19.39401654      -0.00109142       0.00215484       0.00109142
Rh      13.80789782      15.68627658      21.28844472      -0.00058120       0.00137097      -0.00134437
Rh      13.76196325      17.59747044      19.43620703       0.00004504      -0.00070973      -0.00306763
Rh      13.75728215      19.42666167      13.76005500      -0.00267555       0.00202143      -0.00040595
Rh      11.97102903      19.39098935      15.67973802      -0.00175388      -0.00098442      -0.00071401
Rh      13.75393980      19.43069833      17.60606120       0.00236401      -0.00488535      -0.00236401
Rh      13.80690057      21.27119828      15.68460885      -0.00062208       0.00187682       0.00123854
Rh      15.68051010      10.08495861      13.81008424       0.00009262       0.00071700      -0.00318789
Rh      15.68707406       8.35478972      15.67292694       0.00022258      -0.00289920      -0.00022258
Rh      15.68627658      10.07155628      17.55210318       0.00137097       0.00134437       0.00058120
Rh      17.54991676      10.08495861      15.67949090       0.00318789       0.00071700      -0.00009262
Rh      15.67539215      13.80690057      10.08880272      -0.00123854      -0.00062208      -0.00187682
Rh      15.68026298      11.97102903      11.96901165       0.00071401      -0.00175388       0.00098442
Rh      15.67473484      13.80085060      13.81203608       0.00077163       0.00282930      -0.00114221
Rh      17.59786777      11.92007060      13.76213323      -0.00217668      -0.00327456       0.00217668
Rh      17.59994600      13.75728215      11.93333933       0.00040595      -0.00267555      -0.00202143
Rh      15.67446264      11.85300536      15.68553836       0.00152055      -0.00056587      -0.00152055
Rh      15.66935409      13.79777293      17.56222807       0.00058980       0.00114748      -0.00114748
Rh      17.59747044      11.92379397      17.59803775      -0.00070973       0.00306763      -0.00004504
Rh      17.54796492      13.80085060      15.68526616       0.00114221       0.00282930      -0.00077163
Rh      15.69684741      11.96598446      19.39401654       0.00215484      -0.00109142       0.00109142
Rh      15.68627658      13.80789782      21.28844472       0.00137097      -0.00058120      -0.00134437
Rh      17.59747044      13.76196325      19.43620703      -0.00070973       0.00004504      -0.00306763
Rh      15.68673412      15.68673412       8.36298377      -0.00038791      -0.00038791       0.00303091
Rh      15.67922371      17.54480258      10.09471909      -0.00184421      -0.00376451       0.00008669
Rh      17.54480258      15.67922371      10.09471909      -0.00376451      -0.00184421       0.00008669
Rh      15.67514095      15.67514095      11.86019181      -0.00269252      -0.00269252       0.00095777
Rh      15.67589642      17.55002402      13.80997698       0.00017661      -0.00352461       0.00352461
Rh      17.55002402      15.67589642      13.80997698      -0.00352461       0.00017661       0.00352461
Rh      17.60032985      17.60032985      11.92983830      -0.00060279      -0.00060279      -0.00471298
Rh      15.67428953      15.67428953      15.68571147       0.00065809       0.00065809      -0.00065809
Rh      15.67473484      17.54796492      17.55915040       0.00077163       0.00114221      -0.00282930
Rh      17.54796492      15.67473484      17.55915040       0.00114221       0.00077163      -0.00282930
Rh      17.55002402      17.55002402      15.68410458      -0.00352461      -0.00352461      -0.00017661
Rh      15.67446264      15.67446264      19.50699564       0.00152055       0.00152055       0.00056587
Rh      15.68051010      17.54991676      21.27504239       0.00009262       0.00318789      -0.00071700
Rh      17.54991676      15.68051010      21.27504239       0.00318789       0.00009262      -0.00071700
Rh      17.59786777      17.59786777      19.43993040      -0.00217668      -0.00217668       0.00327456
Rh      15.68707406      15.68707406      23.00521128       0.00022258       0.00022258       0.00289920
Rh      15.67684035      19.39228107      11.96771993      -0.00310011       0.00102158      -0.00102158
Rh      15.67922371      21.26528191      13.81519842      -0.00184421      -0.00008669       0.00376451
Rh      17.60032985      19.43016270      13.75967115      -0.00060279       0.00471298       0.00060279
Rh      15.67514095      19.49980919      15.68486005      -0.00269252      -0.00095777       0.00269252
Rh      15.67539215      21.27119828      17.55310043      -0.00123854       0.00187682       0.00062208
Rh      17.59994600      19.42666167      17.60271885       0.00040595       0.00202143       0.00267555
Rh      17.54480258      21.26528191      15.68077729      -0.00376451      -0.00008669       0.00184421
Rh      15.68026298      19.39098935      19.38897197       0.00071401      -0.00098442       0.00175388
Rh      15.68673412      22.99701723      15.67326688      -0.00038791      -0.00303091       0.00038791
Rh      19.42666167      13.75728215      13.76005500       0.00202143      -0.00267555      -0.00040595
Rh      19.39098935      11.97102903      15.67973802      -0.00098442      -0.00175388      -0.00071401
Rh      19.43069833      13.75393980      17.60606120      -0.00488535       0.00236401      -0.00236401
Rh      21.27119828      13.80690057      15.68460885       0.00187682      -0.00062208       0.00123854
Rh      19.39228107      15.67684035      11.96771993       0.00102158      -0.00310011      -0.00102158
Rh      19.43016270      17.60032985      13.75967115       0.00471298      -0.00060279       0.00060279
Rh      21.26528191      15.67922371      13.81519842      -0.00008669      -0.00184421       0.00376451
Rh      19.49980919      15.67514095      15.68486005      -0.00095777      -0.00269252       0.00269252
Rh      19.42666167      17.59994600      17.60271885       0.00202143       0.00040595       0.00267555
Rh      21.27119828      15.67539215      17.55310043       0.00187682      -0.00123854       0.00062208
Rh      21.26528191      17.54480258      15.68077729      -0.00008669      -0.00376451       0.00184421
Rh      19.39098935      15.68026298      19.38897197      -0.00098442       0.00071401       0.00175388
Rh      19.39228107      19.39228107      15.68316065       0.00102158       0.00102158       0.00310011
Rh      22.99701723      15.68673412      15.67326688      -0.00303091      -0.00038791       0.00038791
H       12.53676063      12.53676063      18.82324068      -0.00277974      -0.00277974       0.00277974
86
Lattice="31.360001 0.0 0.0 0.0 31.360001 0.0 0.0 0.0 31.360001" Properties=species:S:1:pos:R:3:forces:R:3 ad=-0.17870724000000004 energy=-453.92753376 stress="3.6358132582732045e-05 3.1665672399256126e-07 -1.4203053336677425e-06 3.1665672399256126e-07 3.6358132582732045e-05 -1.4203053336677425e-06 -1.4203053336677425e-06 -1.4203053336677425e-06 3.84634747505111e-05" free_energy=-453.93117227 pbc="T T T"
Pt       9.99109561      13.70690670      15.66743737       0.00029481      -0.00089032       0.00044030
Pt       9.99513729      15.68671969      13.70530106       0.00021457       0.00044513      -0.00173175
Pt       8.25208885      15.68516330      15.68935487       0.00150664      -0.00264705       0.00129867
Pt       9.99439249      15.67547619      17.65896427       0.00037460       0.00349301      -0.00100492
Pt      10.00330344      17.65061310      15.68200158       0.00033943      -0.00098927      -0.00143855
Pt      13.70690670       9.99109561      15.66743737      -0.00089032       0.00029481       0.00044030
Pt      11.70783740      13.59770239      13.58827840      -0.00282842      -0.00041998      -0.00195522
Pt      13.59770239      11.70783740      13.58827840      -0.00041998      -0.00282842      -0.00195522
Pt      13.60306056      13.60306056      11.71085235      -0.00016617      -0.00016617      -0.00218459
Pt      11.85491863      11.85491863      15.66401662       0.00053381       0.00053381       0.00119460
Pt      11.70010497      13.58977176      17.74847920       0.00088193       0.00084673      -0.00048915
Pt      13.58977176      11.70010497      17.74847920       0.00084673       0.00088193      -0.00048915
Pt      13.72309849      13.72309849      15.66754525      -0.00051809      -0.00051809      -0.00058988
Pt      13.55166842      13.55166842      19.64202491       0.00213006       0.00213006       0.00031904
Pt      13.71005555      15.68295179       9.99241148       0.00003407       0.00204525      -0.00130448
Pt      11.85780030      15.68117525      11.85384486      -0.00165589      -0.00139459      -0.00086369
Pt      11.70834544      17.76756928      13.59474953      -0.00280636       0.00243744      -0.00269774
Pt      13.72568601      15.68519905      13.72200246      -0.00300054       0.00180179       0.00088823
Pt      13.59452970      17.76313216      11.70826641      -0.00267378       0.00352153      -0.00133671
Pt      11.89045704      15.68036145      15.67701628       0.00175158       0.00014894      -0.00337908
Pt      11.73507576      17.75092402      17.76877947       0.00333612      -0.00097065      -0.00202467
Pt      13.71861119      15.65746019      17.63628973      -0.00144411       0.00032344       0.00086460
Pt      13.72668764      17.63432252      15.67787900       0.00018485      -0.00086978      -0.00019476
Pt      11.85325781      15.66589728      19.50674319       0.00037993       0.00106099       0.00148852
Pt      13.67438543      15.62418534      21.41515574       0.00019450      -0.00267299       0.00305846
Pt      13.63067963      17.71163496      19.65669888       0.00196233      -0.00138978       0.00051805
Pt      13.58663607      19.65861027      13.58166081       0.00138150      -0.00014171       0.00172996
Pt      11.86642556      19.49639628      15.69070649      -0.00070032       0.00084970       0.00179200
Pt      13.58437126      19.67000085      17.77634852       0.00400000      -0.00072509      -0.00053973
Pt      13.71392663      21.35668439      15.66879149       0.00113328       0.00178269      -0.00298244
Pt      15.68671969       9.99513729      13.70530106       0.00044513       0.00021457      -0.00173175
Pt      15.68516330       8.25208885      15.68935487      -0.00264705       0.00150664       0.00129867
Pt      15.67547619       9.99439249      17.65896427       0.00349301       0.00037460      -0.00100492
Pt      17.65061310      10.00330344      15.68200158      -0.00098927       0.00033943      -0.00143855
Pt      15.68295179      13.71005555       9.99241148       0.00204525       0.00003407      -0.00130448
Pt      15.68117525      11.85780030      11.85384486      -0.00139459      -0.00165589      -0.00086369
Pt      15.68519905      13.72568601      13.72200246       0.00180179      -0.00300054       0.00088823
Pt      17.76756928      11.70834544      13.59474953       0.00243744      -0.00280636      -0.00269774
Pt      17.76313216      13.59452970      11.70826641       0.00352153      -0.00267378      -0.00133671
Pt      15.68036145      11.89045704      15.67701628       0.00014894       0.00175158      -0.00337908
Pt      15.65746019      13.71861119      17.63628973       0.00032344      -0.00144411       0.00086460
Pt      17.75092402      11.73507576      17.76877947      -0.00097065       0.00333612      -0.00202467
Pt      17.63432252      13.72668764      15.67787900      -0.00086978       0.00018485      -0.00019476
Pt      15.66589728      11.85325781      19.50674319       0.00106099       0.00037993       0.00148852
Pt      15.62418534      13.67438543      21.41515574      -0.00267299       0.00019450       0.00305846
Pt      17.71163496      13.63067963      19.65669888      -0.00138978       0.00196233       0.00051805
Pt      15.68349463      15.68349463       8.24343788       0.00200803       0.00200803      -0.00255982
Pt      15.67425723      17.65395075       9.99122325      -0.00024554       0.00250461      -0.00030761
Pt      17.65395075      15.67425723       9.99122325       0.00250461      -0.00024554      -0.00030761
Pt      15.68452920      15.68452920      11.89067468      -0.00096599      -0.00096599      -0.00093490
Pt      15.67696642      17.63575724      13.72984873      -0.00109631       0.00125330       0.00138648
Pt      17.63575724      15.67696642      13.72984873       0.00125330      -0.00109631       0.00138648
Pt      17.75909111      17.75909111      11.71286661      -0.00061127      -0.00061127       0.00060465
Pt      15.67820890      15.67820890      15.68402211      -0.00005256      -0.00005256       0.00188343
Pt      15.67130061      17.63116049      17.63730611      -0.00103014      -0.00195003       0.00137349
Pt      17.63116049      15.67130061      17.63730611      -0.00195003      -0.00103014       0.00137349
Pt      17.63014788      17.63014788      15.69508278      -0.00253717      -0.00253717       0.00472398
Pt      15.66197477      15.66197477      19.49400100      -0.00350853      -0.00350853       0.00682547
Pt      15.69331282      17.66716554      21.37301260       0.00001348       0.00108282      -0.00122298
Pt      17.66716554      15.69331282      21.37301260       0.00108282       0.00001348      -0.00122298
Pt      17.76312275      17.76312275      19.64707073       0.00060538       0.00060538      -0.00145885
Pt      15.72912155      15.72912155      23.13174449       0.00055299       0.00055299      -0.00196115
Pt      15.67647407      19.49713825      11.85984936       0.00020961       0.00080218       0.00248653
Pt      15.67203192      21.36416156      13.70756839      -0.00031157      -0.00122839       0.00069305
Pt      17.75859687      19.64549426      13.59800313      -0.00380479      -0.00380805       0.00294922
Pt      15.67575091      19.47009464      15.68604106       0.00072382      -0.00154071       0.00115387
Pt      15.67773286      21.36475019      17.66497253       0.00179787      -0.00156071      -0.00300314
Pt      17.76550830      19.65184874      17.76974285       0.00027910       0.00031931       0.00064908
Pt      17.65171572      21.36291186      15.68545714      -0.00078618      -0.00124105       0.00090045
Pt      15.68799950      19.49731669      19.50086445       0.00313983       0.00122429      -0.00401152
Pt      15.68186987      23.10649656      15.68332372      -0.00067466      -0.00161042      -0.00012749
Pt      19.65861027      13.58663607      13.58166081      -0.00014171       0.00138150       0.00172996
Pt      19.49639628      11.86642556      15.69070649       0.00084970      -0.00070032       0.00179200
Pt      19.67000085      13.58437126      17.77634852      -0.00072509       0.00400000      -0.00053973
Pt      21.35668439      13.71392663      15.66879149       0.00178269       0.00113328      -0.00298244
Pt      19.49713825      15.67647407      11.85984936       0.00080218       0.00020961       0.00248653
Pt      19.64549426      17.75859687      13.59800313      -0.00380805      -0.00380479       0.00294922
Pt      21.36416156      15.67203192      13.70756839      -0.00122839      -0.00031157       0.00069305
Pt      19.47009464      15.67575091      15.68604106      -0.00154071       0.00072382       0.00115387
Pt      19.65184874      17.76550830      17.76974285       0.00031931       0.00027910       0.00064908
Pt      21.36475019      15.67773286      17.66497253      -0.00156071       0.00179787      -0.00300314
Pt      21.36291186      17.65171572      15.68545714      -0.00124105      -0.00078618       0.00090045
Pt      19.49731669      15.68799950      19.50086445       0.00122429       0.00313983      -0.00401152
Pt      19.49292629      19.49292629      15.67914657      -0.00038558      -0.00038558       0.00041470
Pt      23.10649656      15.68186987      15.68332372      -0.00161042      -0.00067466      -0.00012749
H       14.00114285      14.00114285      22.05970819       0.00194729       0.00194729       0.00761262
86
Lattice="31.360001 0.0 0.0 0.0 31.360001 0.0 0.0 0.0 31.360001" Properties=species:S:1:pos:R:3:forces:R:3 ad=-0.24933806999997055 energy=-453.99816459 stress="3.6998049547372356e-05 3.653317570616744e-06 3.0130448399562616e-06 3.653317570616744e-06 3.6998049547372356e-05 3.0130448399562616e-06 3.0130448399562616e-06 3.0130448399562616e-06 2.7229738240854003e-05" free_energy=-454.00017995 pbc="T T T"
Pt       9.98604132      13.69975881      15.66163577       0.00655450       0.00104302       0.00421751
Pt       9.99563247      15.68189684      13.70228047      -0.00300202       0.00118768      -0.00284162
Pt       8.24532889      15.67997039      15.67544044       0.00291306       0.00350362       0.00234124
Pt       9.98947462      15.66970689      17.64102948       0.00122421      -0.00291021       0.00525622
Pt       9.99276836      17.65413483      15.67027137       0.00016677      -0.00001992      -0.00238743
Pt      13.69975881       9.98604132      15.66163577       0.00104302       0.00655450       0.00421751
Pt      11.70442136      13.59238185      13.58632028      -0.00058900      -0.00139470      -0.00055453
Pt      13.59238185      11.70442136      13.58632028      -0.00139470      -0.00058900      -0.00055453
Pt      13.59849831      13.59849831      11.70680033      -0.00435128      -0.00435128      -0.00428684
Pt      11.84764217      11.84764217      15.66698735       0.00414960       0.00414960       0.00071796
Pt      11.69542637      13.58046286      17.75078698       0.00749819      -0.00138492      -0.00168219
Pt      13.58046286      11.69542637      17.75078698      -0.00138492       0.00749819      -0.00168219