8
Lattice="4.47500067 -7.26e-06 8.88e-06 4.157e-05 4.25124924 1.40596015 5.092e-05 2.57100387 6.49626519" Properties=species:S:1:pos:R:3:d_band_center:R:1 energy=-55.43442616 pbc="T T T"
Co       0.00004848       3.41111262       3.95113347      -1.34719123
Ni       0.00005092       2.57100555       6.49626010      -1.13256454
Ni       2.23752579       1.28549999       3.24813194      -1.15642468
Ir       2.23756757       4.69662995       7.19924857      -1.92645090
Rh       0.00008274       5.12224864       5.90596917      -1.51840267
Rh       4.47500594       1.69999973       1.99625742      -1.51840267
Rh       2.23755321       3.82272354       2.69718306      -1.51878521
Rh       2.23753548       2.99952399       5.20504607      -1.51878521
9
Lattice="3.73688673 -0.0 0.0 -0.0 5.78085931 0.53222181 -1.86844337 -2.2814658 5.1545424" Properties=species:S:1:pos:R:3:d_band_center:R:1 energy=-52.59868231 pbc="T T T"
Cu       1.86844336       0.10923854       4.18408305      -2.15671205
Cu      -0.00000000       3.39015497       1.50268116      -2.15671205
Cu       0.00000000       0.00000000       0.00000000      -2.17388320
Ni      -0.00000002      -1.49036975       3.40270248      -1.08945178
Ni       1.86844338       4.98976326       2.28406173      -1.08945178
Rh       1.86844150       1.63572496       0.71427364      -1.33678533
Rh       1.86844148       2.62031455       3.21711942      -1.48628748
Rh       0.00000186       1.86366855       4.97249057      -1.33678533
Rh       0.00000188       0.87907896       2.46964479      -1.48628748
9
Lattice="2.63863817 -3e-08 -0.68331919 -0.25622107 6.49007932 -0.98939963 0.57774009 0.10872221 7.66715659" Properties=species:S:1:pos:R:3:d_band_center:R:1 energy=-67.11192529 pbc="T T T"
Ir       0.31110765       2.44578758       1.20134203      -2.14619804
Ir       2.64904954       4.15301392       4.79309574      -2.14619804
Ir       0.00000000       0.00000000       0.00000000      -1.98623004
Pt       1.93811425       0.29246171       2.04781885      -2.43307752
Pt       1.02204294       6.30633979       3.94661892      -2.43307752
Rh       1.32572981       4.44033284      -0.31690571      -1.92371483
Rh       0.97614806       2.30345931       3.76939673      -1.72865982
Rh       1.63442738       2.15846866       6.31134348      -1.92371483
Rh       1.98400913       4.29534219       2.22504104      -1.72865982
20
Lattice="-2.71393676 3.46221018 9.46627034 2.71393676 -3.46221018 9.46627034 2.71393676 3.46221018 -9.46627034" Properties=species:S:1:pos:R:3:d_band_center:R:1 energy=-80.8011671 pbc="T T T"
Ag      -0.00000000       1.22505162      14.60090657      -2.99187877
Ag       2.71393676       2.23715856      -5.13463623      -2.99187877
Ag       0.00000003       2.23715852       5.13463614      -2.99187877
Ag       2.71393673       1.22505166       4.33163420      -2.99187877
Pd       1.35696838       0.00000000       9.46627034      -1.03547372
Pd       1.35696838       3.46221018      -0.00000000      -1.03547372
Pd       1.35696838       3.46221018       3.00492950      -1.29223221
Pd       1.35696838       3.46221018      -3.00492950      -1.29223221
Pd       1.35696838       0.00000000       6.46134084      -1.29223221
Pd       1.35696838      -0.00000000      12.47119984      -1.29223221
Pd       2.71393676      -1.79855213       7.86256392      -1.35764877
Pd      -0.00000000       5.26076231       1.60370642      -1.35764877
Pd      -0.00000003       1.79855216       7.86256402      -1.35764877
Pd       2.71393679       1.66365802       1.60370632      -1.35764877
Au       4.07090514      -0.00000000      -0.00000000      -2.97585418
Au       1.35696838       0.00000000       0.00000000      -2.97585418
Au       0.00000000       2.40173188      11.89855505      -2.62340064
Au       2.71393676       1.06047830      -2.43228471      -2.62340064
Au      -0.00000000       1.06047830       2.43228471      -2.62340064
Au       2.71393676       2.40173188       7.03398563      -2.62340064
11
Lattice="3.60085325 -0.64251789 -0.8619693 -0.83645484 6.85788478 -0.41362857 0.06373681 2.94735942 6.26182355" Properties=species:S:1:pos:R:3:d_band_center:R:1 energy=-81.20556824 pbc="T T T"
Co      -0.14618063       3.85926890       4.70517344      -1.15677238
Co       2.97431585       5.30345741       0.28105224      -1.15677238
Ir       0.49766751       1.61561461       0.87934337      -2.01295530
Ir       2.33046771       7.54711170       4.10688231      -2.01295530
Rh       1.64628544       7.03769019       1.63024568      -1.60600977
Rh       0.73203361       4.07905929       0.02033791      -1.60597909
Rh       1.18184978       2.12503612       3.35598000      -1.60600977
Rh       2.09610161       5.08366702       4.96588777      -1.60597909
Rh       1.80042663      -0.32125895      -0.43098465      -1.88089639
Rh       0.01457580       6.19691577       3.62823017      -1.40434526
Rh       2.81355942       2.96581054       1.35799551      -1.40434526
8
Lattice="4.7174482 0.0 -0.0 0.0 2.54682817 -0.90717445 -2.3587241 -3.18960828 11.18718025" Properties=species:S:1:pos:R:3:d_band_center:R:1 energy=-55.28794069 pbc="T T T"
Ir       2.35872410       0.00000000       0.00000000      -1.76361354
Pt       0.00000000       1.27341408      -0.45358722      -2.46333177
Pt       0.00000000       0.32823152       4.94910182      -2.32330609
Pt       2.35872410      -0.97101163       5.33090398      -2.32330609
Rh       2.35872410      -0.50678019       2.60549457      -1.39691501
Rh      -0.00000000      -0.13599992       7.67451123      -1.39691501
Rh       2.35872644      -1.44833007       8.02029062      -1.33292410
Rh      -0.00000234       0.80554996       2.25971518      -1.33292410
14
Lattice="6.89529673 0.03782558 -0.06503193 -2.29749907 6.50138801 0.06502958 -2.3002948 -3.26862326 5.61921015" Properties=species:S:1:pos:R:3:d_band_center:R:1 energy=-56.50806662 pbc="T T T"
Pd      -0.84384215       1.64244626       0.57041018      -1.19186500
Pd       3.65265917       5.30263605       1.14570978      -1.19184335
Pd       2.25539147       2.25106800       3.97790712      -1.19196427
Pd       2.29750097      -1.61539884       2.77708911      -1.24078050
Pd      -0.46920277      -2.65496965       5.54438851      -1.19189666
Pt      -1.15014645       0.80868296       4.23066442      -1.31331783
Au      -0.83378316       4.34791986       0.34487593      -2.79341876
Au       4.87263502      -1.57550678       3.54392071      -2.79341207
Au       3.76993595       0.63908255       2.02519835      -2.61068055
Au       1.36552194      -0.38578177       5.10851519      -2.61074280
Au       1.62329195       3.17030357       1.34631017      -2.61088060
Au      -0.22421012       3.19313731       4.91694857      -2.79324134
Au       0.78036397       0.57563027       2.43267038      -2.79312839
Au      -2.16374403       3.11757635       2.75839183      -2.61077503
20
Lattice="8.44144106 1.83683298 -4.04751735 0.81307586 7.18334079 -3.58986361 -2.84412189 -2.36748995 8.50996158" Properties=species:S:1:pos:R:3:d_band_center:R:1 energy=-73.72888365 pbc="T T T"
Ag       5.60551632       6.84736860      -0.45903634      -3.05412189
Ag       0.80487871      -0.19468478       1.33161696      -3.05412189
Ag       2.12447430       4.49413353       1.93888247      -3.05390478
Ag       4.28591229       2.15854846      -1.06629781      -3.05390478
Pd       0.06194056       5.25417686       3.86251565      -1.13727388
Pd       6.34845365       1.39849978      -2.98993144      -1.13727388
Pd       5.44208460       4.19796780      -2.40956312      -1.00910813
Pd       0.96831043       2.45471602       3.28214374      -1.00910813
Pd       0.47730226       4.96792056      -0.87411414      -1.00926179
Pd       5.93309277       1.68476326       1.74669476      -1.00926179
Au       2.52534482       4.06101560      -2.78457738      -2.81081085
Au       3.88505021       2.59166822       3.65715800      -2.81081085
Au      -0.79138682       4.22882825       1.61748862      -2.73989639
Au       3.02439799       1.55749847       1.39286085      -2.83640283
Au       7.20178185       2.42385557      -0.74490800      -2.73989639
Au       3.38599704       5.09518535      -0.52028023      -2.83640283
Au       5.67307917       4.24030518       0.67932163      -2.82039808
Au       0.73731586       2.41237864       0.19325899      -2.82039808
Au       1.22886022      -0.10015896       4.35097425      -2.82053254
Au       5.18153481       6.75284278      -3.47839363      -2.82053254
8
Lattice="5.24675947 0.0 0.0 2.62337973 4.54382698 0.0 2.62337973 1.51460899 4.28396116" Properties=species:S:1:pos:R:3:d_band_center:R:1 energy=-30.89653288 pbc="T T T"
Ag       0.00000000       0.00000000       0.00000000      -4.06872681
Cu       1.31168986       0.75730449       2.14198058      -2.05916135
Cu       1.31168986       2.27191349       0.00000000      -2.05928732
Cu       2.62337973       3.02921799       2.14198058      -2.05929008
Cu       2.62337973       0.00000000       0.00000000      -2.05944488
Cu       3.93506960       0.75730449       2.14198058      -2.05916135
Cu       3.93506960       2.27191349       0.00000000      -2.05928732
Cu       5.24675947       3.02921799       2.14198058      -2.07004199
4
Lattice="4.45602943 -0.00155319 0.00507953 -1.43866617 4.21739735 0.00507953 -0.00334932 -0.00467965 2.61197011" Properties=species:S:1:pos:R:3:d_band_center:R:1 energy=-26.77717044 pbc="T T T"
Co       0.00000000       0.00000000       0.00000000      -1.16722972
Co       1.50868163       2.10792208       0.00507953      -1.16728926
Cu       2.22634006      -0.00311642       1.30852482      -2.50407209
Ir      -0.72100775       2.10635885       1.30852482      -1.99348425
8
Lattice="5.09525 0.0 0.0 0.0 5.09525 0.0 0.0 0.0 5.19939" Properties=species:S:1:pos:R:3:d_band_center:R:1 energy=-24.69959992 pbc="T T T"
Cu       1.62074807       3.47450193       0.00000000      -1.73321836
Cu       4.16837307       4.16837307       2.59969500      -1.73321836
Cu       0.92687693       0.92687693       2.59969500      -1.73321836
Cu       3.47450193       1.62074807       0.00000000      -1.73321836
Ag       0.97115465       0.97115465       0.00000000      -3.61013023
Ag       3.51877965       1.57647035       2.59969500      -3.61013023
Ag       1.57647035       3.51877965       2.59969500      -3.61013023
Ag       4.12409535       4.12409535       0.00000000      -3.61013023
6
Lattice="-1.3235996 1.3235996 11.44042097 1.3235996 -1.3235996 11.44042097 1.3235996 1.3235996 -11.44042097" Properties=species:S:1:pos:R:3:d_band_center:R:1 energy=-34.4569117 pbc="T T T"
Ni      -0.00000000       0.00000000      13.30122535      -1.20201799
Ni       0.00000000      -0.00000000       9.57961659      -1.20201799
Ni       1.32359960       0.00000000       7.58101486      -1.20201799
Ni       1.32359960       0.00000000       3.85940611      -1.20201799
Pt       0.00000000       1.32359960       5.72021048      -2.49719449
Pt       0.00000000       0.00000000       0.00000000      -2.49719449
3
Lattice="2.118942 -3.6701152 0.0 2.118942 3.6701152 0.0 0.0 0.0 2.516681" Properties=species:S:1:pos:R:3:d_band_center:R:1 energy=-16.50314941 pbc="T T T"
Cu       2.11894200      -1.22337176       0.00000000      -2.23116411
Cu       2.11894200       1.22337176       0.00000000      -2.23116411
Ir       0.00000000       0.00000000       1.25834050      -1.51545784
24
Lattice="6.86165539 -0.0 -3.77510184 -2.07696186 6.53976631 -3.77510183 0.17036106 0.23285219 8.43310134" Properties=species:S:1:pos:R:3:d_band_center:R:1 energy=-133.59879243 pbc="T T T"
Co       1.33268485       1.82152732       2.42229930      -1.25532116
Co       3.62236974       4.95109118      -1.53940163      -1.25535021
Co       3.48215863       0.07015965      -1.79425138      -1.25535021
Co       5.94220458       3.43257570       2.67714904      -1.25532116
Pd       0.74983553       4.47159471      -3.77510183      -1.45673306
Pd      -0.91704444       5.78050857      -1.66682650      -2.11789264
Pd       0.12143649       2.51062541       0.22072442      -2.11785159
Pd       3.44191684       4.70444690       3.27061553      -1.45673265
Pd       4.20521906       2.30102379       4.65799950      -1.45692468
Pd       5.59139062       2.95307923      -0.94593514      -1.45683238
Pd       2.59896379       5.89693466       0.66217325      -2.11768489
Pd      -0.83186391       5.89693466       2.54972417      -2.11786915
Pd       3.83297259       0.54965612       1.82883281      -1.45673265
Pd       3.06967037       2.95307923       0.44144883      -1.45692468
Pd       1.51313775       2.06817160      -2.38771786      -1.45683238
Pd       6.35469284       0.54965612       0.44144883      -1.45673306
Pt       4.96681510       4.79831596       0.90428143      -2.02888378
Pt       1.11268247       4.21973844       2.02241346      -2.02898759
Pt       1.88524514       0.58639507      -0.02138377      -2.02885692
Pt       1.27006914       4.43485575      -1.13951579      -2.02887646
Pt       5.83445923       0.58639507      -2.19413721      -2.02887646
Pt       5.21928324       4.43485575      -3.31226924      -2.02885692
Pt       2.30807434       0.45578705       4.19516690      -2.02888378
Pt       6.16220696       1.03436458       3.07703487      -2.02898759
6
Lattice="2.86865969 0.00106096 0.02420225 1.43459594 2.48417874 0.02420225 1.34618111 0.77745387 14.49627406" Properties=species:S:1:pos:R:3:d_band_center:R:1 energy=-25.02683314 pbc="T T T"
Pt       0.71729797       1.24208937       0.01210113      -1.68984982
Pt       2.10742040       0.38925741       7.26023815      -1.70150682
Au       2.09195344       2.03598791       9.64812344      -3.25145720
Au       3.55748330       1.22670566       4.89655512      -3.25145720
Au       3.50148429       1.19436481      12.12422138      -3.22621872
Au       2.14795245       2.06832876       2.42045718      -3.22621872
4
Lattice="4.64047498 0.00035609 0.01135544 3.84966463 2.59115619 0.01135544 0.78652426 0.240077 4.51420335" Properties=species:S:1:pos:R:3:d_band_center:R:1 energy=-29.27359764 pbc="T T T"
Ni       2.31916597       0.70789732       1.13422856      -1.25377665
Ir       6.95749790       2.12369196       3.40268567      -2.10636510
Rh       8.48575088       2.59017267       0.03367888      -1.86096131
Rh       4.64272066       1.41713425       2.25748911      -1.86096131
4
Lattice="4.67355542 0.00108629 -0.00083164 3.87597603 2.61130834 -0.00083164 0.8306692 0.25381926 4.60176213" Properties=species:S:1:pos:R:3:d_band_center:R:1 energy=-29.43990048 pbc="T T T"
Ni       2.34505016       0.71655347       1.15002471      -1.26456602
Ir       8.51595863       2.60213612       0.03647360      -2.16698942
Ir       4.72367314       1.44336545       2.26191255      -2.16698942
Pt       7.03515049       2.14966042       3.45007414      -2.81455464
11
Lattice="4.12281816 1.489483 -0.0 2.42204712 6.24619894 -0.0 1.21102356 3.12309947 6.34724923" Properties=species:S:1:pos:R:3:d_band_center:R:1 energy=-62.26417066 pbc="T T T"
Ni       3.73037273       2.61425259       1.67621407      -1.21684938
Ni       4.94139626       5.73735200       4.67103516      -1.21684938
Ni       3.44873543       6.59928585       6.34724923      -1.49494588
Ni       4.48345620       6.99094044       2.54919595      -1.13015024
Ni       3.27243264       3.86784097       3.79805328      -1.13015024
Ni       4.30715341       4.25949556       0.00000000      -1.49494588
Ni       2.81449258       5.12142941       1.67621407      -1.21684938
Ni       4.02551611       8.24452882       4.67103516      -1.21684938
Pd       2.06140908       0.74474150       0.00000000      -1.50633927
Pt       5.33384052       4.61257938       2.33473706      -2.32113413
Pt       2.42204832       6.24620203       4.01251217      -2.32113413
8
Lattice="-1.85874052 1.85874052 7.3394839 1.85874052 -1.85874052 7.3394839 1.85874052 1.85874052 -7.3394839" Properties=species:S:1:pos:R:3:d_band_center:R:1 energy=-41.34899114 pbc="T T T"
Cu       0.00000000       1.85874052       0.00000000      -2.06100894
Cu       0.00000000      -0.00000000       1.85255957      -2.09100970
Cu       0.00000000      -0.00000000      12.82640823      -2.09100970
Cu      -0.00000000       1.85874052       3.66974195      -2.17568158
Cu       1.85874052       0.00000000       3.66974195      -2.17568158
Cu       1.85874052       0.00000000       0.00000000      -2.06100894
Ir       0.00000000      -0.00000000       5.51158103      -1.16658305
Ir      -0.00000000       0.00000000       9.16738677      -1.16658305
14
Lattice="5.36230137 0.97539443 -0.33126117 -0.01296477 5.45027574 -0.33126117 0.60885289 0.73136012 7.51463774" Properties=species:S:1:pos:R:3:d_band_center:R:1 energy=-77.37446328 pbc="T T T"
Ni       0.15019056       0.18041037       1.64082018      -1.05305011
Ni       5.80799893       6.97661992       5.21129522      -1.05305011
Pd       1.85919048       2.23327115       7.21612952      -1.73121656
Pd       2.76078657       0.90399208       1.96846819      -1.53474741
Pd       0.38847511       2.87892913       1.96846819      -1.53471643
Pd       3.19740292       6.25303821       4.88364721      -1.53474741
Pd       5.56971438       4.27810116       4.88364721      -1.53471643
Pd       4.09899901       4.92375914      -0.36401412      -1.73121656
Pt       2.93464605       3.52512312       4.94814297      -1.84161649
Pt       1.30071568       4.97575705       3.42605770      -2.07749621
Pt       4.65747381       2.18127324       3.42605770      -2.07749621
Pt       2.10232328       4.92753637       7.18337657      -1.83739845
Pt       3.85586621       2.22949392      -0.33126117      -1.83739845
Pt       3.02354344       3.63190717       1.90397243      -1.84161649
4
Lattice="5.52707843 0.00507854 0.00022388 2.74996931 4.794402 -0.00022388 -3.44761066 -3.59127188 2.40111825" Properties=species:S:1:pos:R:3:d_band_center:R:1 energy=-18.56075437 pbc="T T T"
Au       0.05368303       0.03112833       0.00000000      -3.39665880
Au       3.01187700      -0.64954129       1.20067107      -3.60390984
Cu       0.62669946      -1.22876622       2.40111825      -1.98805174
Ir       1.82809080       1.86385623       1.20044719      -1.23306644
11
Lattice="2.66427502 0.0 0.0 0.0 6.73697329 0.07269874 0.0 1.12693715 8.5275131" Properties=species:S:1:pos:R:3:d_band_center:R:1 energy=-70.15901834 pbc="T T T"
Ni       1.33213751       2.49458686       4.77663438      -1.14602527
Ni       1.33213751       6.57780576       7.72937737      -1.22674787
Ni       1.33213751       5.36932358       3.82357746      -1.14602527
Ni       1.33213751       1.28610468       0.87083447      -1.22674787
Pt       0.00000000       6.92994424       5.57616013      -2.41945294
Pt       0.00000000       0.93396620       3.02405171      -2.41945294
Rh       0.00000000       3.52061507       2.68508499      -1.40270884
Rh       0.00000000       5.72316775       1.33139259      -1.40811229
Rh       0.00000000       3.36848664       0.03634937      -1.39431651
Rh       0.00000000       2.14074269       7.26881925      -1.40811229
Rh       0.00000000       4.34329537       5.91512685      -1.40270884
20
Lattice="7.65456279 -0.08244502 -0.12374639 -2.20762907 7.32976825 -0.1237464 -2.20762909 -2.93732261 6.71661757" Properties=species:S:1:pos:R:3:d_band_center:R:1 energy=-64.12576111 pbc="T T T"
Ag      -2.87466883       2.04863632       6.48297464      -3.57374644
Ag       0.47212621      -2.51695019       5.99472188      -3.57377747
Ag      -2.54897015       5.62711859       2.08156656      -3.57367124
Ag       1.61965232       2.15500031       3.23456239      -3.47368474
Ag       5.78827478      -1.31711797       4.38755822      -3.57367124
Ag       2.76717842       6.82695081       0.47440290      -3.57377747
Ag       6.11397346       2.26136430      -0.01384986      -3.57374644
Pt       0.00000000       0.00000000       0.00000000      -1.15512675
Au       3.74041194       0.53743798       4.09557916      -3.08488400
Au       3.76312407       1.97178947       1.43805416      -3.08527351
Au       2.33680939      -0.63151928       1.95790378      -2.98248841
Au       4.49569451       3.30006177       3.80559519      -2.98280943
Au       0.84765077      -0.27630523       4.39570243      -3.08493408
Au       1.91984128       1.49529766       6.29781914      -2.98281893
Au       1.31946335       2.81470296       0.17130564      -2.98281893
Au       2.39165386       4.58630585       2.07342235      -3.08493408
Au      -1.25638988       1.00993885       2.66352959      -2.98280943
Au       0.90249524       4.94151990       4.51122100      -2.98248841
Au      -0.52381944       2.33821115       5.03107062      -3.08527351
Au      -0.50110731       3.77256264       2.37354562      -3.08488400
8
Lattice="3.72645474 0.0 -0.01941173 0.0 3.72587847 0.0 -1.8301355 0.0 7.70107657" Properties=species:S:1:pos:R:3:d_band_center:R:1 energy=-58.97798119 pbc="T T T"
Co       1.86690182       0.93146962       0.83662324      -1.31507424
Co       0.02941742       2.79440885       6.84504160      -1.31507424
Co       0.00475588       2.79440885       0.82916857      -1.33591496
Co       1.89156336       0.93146962       6.85249627      -1.33591496
Ir       1.87751165       2.79440885       2.55595928      -2.00517479
Ir       0.01880759       0.93146962       5.12570556      -2.00517479
Rh       0.01344099       0.93146962       2.63384869      -1.88242275
Rh       1.88287825       2.79440885       5.04781615      -1.88242275
3
Lattice="4.76369554 -0.00054925 0.00090916 2.37470105 4.1295993 -0.00090916 -3.17348773 -2.74863775 2.25094701" Properties=species:S:1:pos:R:3:d_band_center:R:1 energy=-22.2023478 pbc="T T T"
Ir       7.12453004       4.12102925       0.00000000      -2.07315106
Rh       2.39722755       1.38662407      -0.00000000      -1.82808874
Pt       1.58154779       0.00180899       2.25094701      -2.80079443
3
Lattice="2.50439347 0.0 0.0 -1.25219674 2.16886837 0.0 0.0 0.0 6.20377328" Properties=species:S:1:pos:R:3:d_band_center:R:1 energy=-16.8168919 pbc="T T T"
Ni       1.25219675       0.72295612       4.17361391      -1.28925928
Co       0.00000000       0.00000000       6.16360918      -1.10892346
Cu      -0.00000002       1.44591225       2.07032347      -2.37024226
4
Lattice="4.57739723 -0.00554109 0.00515335 3.76433933 2.60429366 0.00515335 0.80979867 0.25228157 4.65275258" Properties=species:S:1:pos:R:3:d_band_center:R:1 energy=-23.56038629 pbc="T T T"
Co       6.86365142       2.13827561       3.49729446      -1.12290922
Cu       2.28788381       0.71275854       1.16576482      -2.07837753
Pt       0.82175480       0.25600634       4.64345217      -2.41282210
Pt       4.56381148       1.42179230       2.34083005      -2.41282210
24
Lattice="6.81791553 -1e-08 -3.7510373 -2.06372176 6.49807791 -3.75103732 -0.17240353 -0.23564279 7.75830618" Properties=species:S:1:pos:R:3:d_band_center:R:1 energy=-170.61176072 pbc="T T T"
Co       0.51594146       4.61071228      -3.75103356      -1.29262432
Co      -0.99661798       5.62690747      -1.81146077      -1.50492402
Co       0.03524290       2.37786852       0.06405789      -1.50483750
Co       3.37333693       4.61071878      -5.32310207      -1.29255047
Co       4.06584402       1.65171633       4.00727263      -1.29264901
Co       5.50754449       2.86837790      -1.44394898      -1.29252943
Co       2.32613802       5.50908607       0.19217367      -1.50484465
Co      -1.08281975       5.50908608       2.06769232      -1.50487572
Co       3.51505758       0.14501825       1.70018430      -1.29255047
Co       2.65014696       2.86837791       0.12811578      -1.29264901
Co       1.20844649       1.65171633       5.57933738      -1.29252943
Co       6.37245511       0.14501824       0.12811954      -1.29262432
Ni       1.29250077       1.76660253       2.34926017      -1.31775962
Ni       3.28928947       4.49583258      -2.09302861      -1.31779327
Ni       3.59911186       0.25990445      -1.52989291      -1.31779327
Ni       5.42349703       2.75349170       1.78612448      -1.31775962
Ir       4.55203794       4.47335839       0.20215346      -2.05176879
Ir       0.87463751       4.10644836       1.58974850      -2.05179269
Ir       1.69614329       0.56989402       0.05407810      -2.05163511
Ir       0.93272508       4.18584301      -1.33351694      -2.05175918
Ir       5.95567625       0.56989402      -2.28940458      -2.05175918
Ir       5.19225803       4.18584300      -3.67699963      -2.05163511
Ir       2.16395985       0.04673585       3.93323119      -2.05176879
Ir       5.84136029       0.41364587       2.54563616      -2.05179269
11
Lattice="5.17094535 0.66182388 -1.14535763 -1.43210396 5.09898426 -2.6336792 -1.04419967 0.19294441 7.39099496" Properties=species:S:1:pos:R:3:d_band_center:R:1 energy=-41.77444521 pbc="T T T"
Co       2.58547268       0.33091194      -0.57267881      -0.95509070
Pd       2.19273811       4.08451206       0.26591115      -1.23894174
Pd       0.50190361       1.86924049       3.34604698      -1.23894174
Au       0.53259557       1.83120368       0.52569717      -3.05563402
Au      -0.87769136       0.66074961       5.47611607      -3.05572127
Au       3.18992777       2.44575907      -1.84478337      -3.07280072
Au       2.94624868       1.67454037       1.83249606      -2.83162224
Au      -0.25160696       4.27921218       1.77946207      -2.83162224
Au      -0.49528605       3.50799348       5.45674150      -3.07280072
Au       3.57233308       5.29300294      -1.86415794      -3.05572127
Au       2.16204615       4.12254887       3.08626096      -3.05563402
14
Lattice="4.73045041 0.0 0.0 0.0 7.3714839 -1.18e-06 0.0 -3.68574093 6.38389291" Properties=species:S:1:pos:R:3:d_band_center:R:1 energy=-73.257306 pbc="T T T"
Pd       3.54783781       0.52413472       1.52075619      -1.53238929
Pd       3.54783781      -2.63079479       5.16960084      -1.53241265
Pd       1.18261260       1.57908085       0.30646412      -1.53234228
Pd       3.54783781       2.10666212       6.07742761      -1.53234228
Pd       1.18261260       6.31653776       1.21429089      -1.53241265
Pd       1.18261260       3.16160825       4.86313554      -1.53238929
Pt       3.54783781       3.13759696       0.61529245      -1.73483940
Pt       3.54783781       2.64980331       3.35900684      -1.73458227
Pt       1.18261260      -1.58408352       3.97430040      -1.73479808
Pt       3.54783781       5.26982649       2.40959133      -1.73479808
Pt       1.18261260       1.03593966       3.02488489      -1.73458227
Pt       1.18261260       0.54814601       5.76859928      -1.73483940
Au       1.18261260       3.68574233       2.12796350      -3.17790747
Au       3.54783781       0.00000064       4.25592823      -3.17790747
9
Lattice="3.90840374 -0.0 0.0 1.95420187 4.3766749 -0.06640433 1.95420187 1.87732183 7.87759203" Properties=species:S:1:pos:R:3:d_band_center:R:1 energy=-55.420616 pbc="T T T"
Cu       1.95420187       3.12699837       3.90559385      -1.89971115
Pt       5.86260366       4.94045351       7.39368204      -2.25385550
Pt       1.95420382       1.31354322       0.41750566      -2.25385550
Pt       5.86260756       3.94247782       1.33495714      -2.30191216
Pt       3.90840374       4.87413384       3.03756585      -2.30595125
Pt       1.95419992       2.31151891       6.47623056      -2.30191216
Pt       3.90840374       1.37986289       4.77362185      -2.30595125
Rh       3.90840571       4.01572799       5.62028090      -1.37371096
Rh       3.90840177       2.23826874       2.19090680      -1.37371096
4
Lattice="3.77946809 -0.0 0.0 0.0 3.77946809 0.0 0.0 0.0 3.55213589" Properties=species:S:1:pos:R:3:d_band_center:R:1 energy=-27.61721149 pbc="T T T"
Ir       0.00000000       1.88973404       1.77606795      -1.95055976
Ni       0.00000000       0.00000000       0.00000000      -1.39193275
Ni       1.88973404       1.88973404       0.00000000      -1.39193275
Rh       1.88973404       0.00000000       1.77606795      -1.78470631
6
Lattice="0.0 3.84381676 3.84381676 3.84381676 0.0 3.84381676 3.84381676 3.84381676 0.0" Properties=species:S:1:pos:R:3:d_band_center:R:1 energy=-19.95409324 pbc="T T T"
Ni       0.00000000       0.00000000       0.00000000      -0.32710261
Au       2.88182666       4.80580686       4.80580686      -3.11478402
Au       5.76572514       5.76572514       5.76572514      -2.56203980
Au       4.80580686       2.88182666       4.80580686      -3.11478402
Au       2.88182666       2.88182666       2.88182666      -3.11478402
Au       4.80580686       4.80580686       2.88182666      -3.11478402
12
Lattice="2.73010928 0.0 0.0 0.0 4.05697181 0.0 0.0 0.0 16.60435993" Properties=species:S:1:pos:R:3:d_band_center:R:1 energy=-44.3979173 pbc="T T T"
Au       0.00000000       1.01424295      10.19702353      -3.29801772
Au       0.00000000       3.04272886       6.40733640      -3.29801772
Au       1.36505464       1.01424295      14.70951637      -3.29801772
Au       1.36505464       3.04272886       1.89484356      -3.29801772
Cu       0.00000000       1.01424295       0.65925851      -1.99183394
Cu       0.00000000       1.01424295       3.13566314      -1.82183560
Cu       0.00000000       3.04272886      13.46869679      -1.82183560
Cu       0.00000000       3.04272886      15.94510142      -1.99183394
Cu       1.36505464       1.01424295       5.16651683      -1.82183560
Cu       1.36505464       1.01424295       7.64292145      -1.99183394
Cu       1.36505464       3.04272886       8.96143848      -1.99183394
Cu       1.36505464       3.04272886      11.43784310      -1.82183560
19
Lattice="6.48241502 0.46237851 0.55391824 -0.52572187 6.47758558 0.55391824 -0.52572188 -0.61250275 6.47230876" Properties=species:S:1:pos:R:3:d_band_center:R:1 energy=-145.32166986 pbc="T T T"